 &FCI NORB=   8,NELEC= 8,MS2=0,
  ORBSYM=1,1,1,1,1,1,1,1,
  ISYM=1,
 &END
 0.368526296719686    1    1    1    1
 0.3648910464500734    1    1    2    2
 0.3648910464500733    1    1    3    3
 0.3653021751781265    1    1    4    4
 5.547894088575589e-10    1    1    5    4
 0.3653021751781329    1    1    5    5
 -2.256777630142465e-05    1    1    6    2
 0.0002318813855539878    1    1    6    3
 0.3701421009589446    1    1    6    6
 0.0002318813855541023    1    1    7    2
 2.256777630136458e-05    1    1    7    3
 0.3701421009589444    1    1    7    7
 -6.224176452018781e-10    1    1    8    1
 0.3738140611365858    1    1    8    8
 0.1214118807848045    2    1    2    1
 0.08901110404512842    2    1    4    2
 0.03177885713284861    2    1    4    3
 0.02809716980121462    2    1    5    2
 -0.0786987874421891    2    1    5    3
 0.0003312132134908933    2    1    6    1
 0.02097138195192869    2    1    6    4
 0.09343188229830593    2    1    6    5
 -0.003403077604136403    2    1    7    1
 0.08356114729879691    2    1    7    4
 -0.02344868811216033    2    1    7    5
 2.25570273812729e-08    2    1    8    2
 -0.003740051662213453    2    1    8    3
 -0.1268158518685723    2    1    8    6
 -0.0123422525730292    2    1    8    7
 0.3648910464500734    2    2    1    1
 0.4038385437338781    2    2    2    2
 0.003968296598667839    2    2    3    2
 0.3236095012257796    2    2    3    3
 0.04971808642778869    2    2    4    1
 0.366358168641798    2    2    4    4
 0.01481467527005328    2    2    5    1
 -6.160882595751538e-09    2    2    5    4
 0.3654229750126887    2    2    5    5
 0.01935089907982634    2    2    6    2
 -0.02881862812743247    2    2    6    3
 0.4067140969972049    2    2    6    6
 0.03025084409793682    2    2    7    2
 0.019490308720964    2    2    7    3
 0.002896840452754193    2    2    7    6
 0.3374870033997786    2    2    7    7
 9.035227389181388e-09    2    2    8    1
 -0.01416578639731498    2    2    8    4
 -0.04811440232237522    2    2    8    5
 0.3766018442730479    2    2    8    8
 0.1214118807848045    3    1    3    1
 0.03177885713284861    3    1    4    2
 -0.08901110404512839    3    1    4    3
 -0.07869878744218901    3    1    5    2
 -0.02809716980121461    3    1    5    3
 -0.003403077604136444    3    1    6    1
 -0.083561147298797    3    1    6    4
 0.0234486881121603    3    1    6    5
 -0.0003312132134909249    3    1    7    1
 0.02097138195192878    3    1    7    4
 0.09343188229830576    3    1    7    5
 -1.124100812432971e-15    3    1    7    7
 0.003740051662213507    3    1    8    2
 2.255702735362575e-08    3    1    8    3
 -0.01234225257302923    3    1    8    6
 0.1268158518685724    3    1    8    7
 1.002670169114595e-15    3    1    8    8
 0.003968296598667837    3    2    2    2
 0.0304162273096719    3    2    3    2
 -0.003968296598667822    3    2    3    3
 0.01775041000623444    3    2    4    1
 -0.0414951637937528    3    2    5    1
 -0.02874116608198843    3    2    6    2
 -0.01949785521879689    3    2    6    3
 0.008610856548065676    3    2    6    6
 0.01949785521879685    3    2    7    2
 -0.02874116608198837    3    2    7    3
 -0.02394688131017393    3    2    7    6
 -0.008610856548065614    3    2    7    7
 0.03967849745749352    3    2    8    4
 -0.01717761385255343    3    2    8    5
 0.3648910464500734    3    3    1    1
 0.3236095012257796    3    3    2    2
 -0.003968296598667832    3    3    3    2
 0.403838543733878    3    3    3    3
 -0.04971808642778865    3    3    4    1
 0.366358168641798    3    3    4    4
 -0.01481467527005332    3    3    5    1
 -6.160882567995962e-09    3    3    5    4
 0.3654229750126887    3    3    5    5
 -0.01949030872096405    3    3    6    2
 0.03025084409793685    3    3    6    3
 0.3374870033997788    3    3    6    6
 -0.02881862812743234    3    3    7    2
 -0.01935089907982647    3    3    7    3
 -0.002896840452754252    3    3    7    6
 0.4067140969972048    3    3    7    7
 9.035227375303601e-09    3    3    8    1
 0.01416578639731504    3    3    8    4
 0.04811440232237518    3    3    8    5
 0.3766018442730481    3    3    8    8
 0.0497180864277887    4    1    2    2
 0.01775041000623444    4    1    3    2
 -0.04971808642778866    4    1    3    3
 0.06714014642885868    4    1    4    1
 1.060309404946752e-09    4    1    5    1
 0.01100163540275938    4    1    6    2
 -0.04383641394238012    4    1    6    3
 0.04564091834499492    4    1    6    6
 0.04383641394238006    4    1    7    2
 0.01100163540275942    4    1    7    3
 -0.006845587341528072    4    1    7    6
 -0.04564091834499487    4    1    7    7
 3.614644202756118e-07    4    1    8    4
 -0.0655079193640868    4    1    8    5
 0.08901110404512841    4    2    2    1
 0.03177885713284859    4    2    3    1
 0.09481941579089655    4    2    4    2
 2.844246519946927e-09    4    2    5    2
 -0.04174625983419293    4    2    5    3
 0.006589239322499583    4    2    6    1
 -0.004938105646068978    4    2    6    4
 0.08934684555086722    4    2    6    5
 0.02625508957188544    4    2    7    1
 0.05073384036076269    4    2    7    4
 0.008695905581655576    4    2    7    5
 -0.008191748386120051    4    2    8    2
 0.0229452413037503    4    2    8    3
 -0.09874903748286558    4    2    8    6
 0.02478367383453888    4    2    8    7
 0.0317788571328486    4    3    2    1
 -0.08901110404512841    4    3    3    1
 0.09481941579089664    4    3    4    3
 0.04174625983419288    4    3    5    2
 2.84424649110715e-09    4    3    5    3
 -0.0262550895718855    4    3    6    1
 0.0507338403607628    4    3    6    4
 0.008695905581655616    4    3    6    5
 0.006589239322499633    4    3    7    1
 0.004938105646068929    4    3    7    4
 -0.0893468455508671    4    3    7    5
 0.02294524130375029    4    3    8    2
 0.008191748386120055    4    3    8    3
 -0.02478367383453888    4    3    8    6
 -0.09874903748286559    4    3    8    7
 0.3653021751781265    4    4    1    1
 0.366358168641798    4    4    2    2
 0.3663581686417982    4    4    3    3
 0.3770228014511395    4    4    4    4
 -1.417272184958684e-07    4    4    5    4
 0.3627402896645091    4    4    5    5
 -0.0005630420566724338    4    4    6    2
 0.005783270602244657    4    4    6    3
 0.3776175737546006    4    4    6    6
 0.005783270602244609    4    4    7    2
 0.0005630420566723263    4    4    7    3
 0.3776175737546004    4    4    7    7
 1.890045652312711e-07    4    4    8    1
 0.3838551734930694    4    4    8    8
 0.01481467527005329    5    1    2    2
 -0.04149516379375279    5    1    3    2
 -0.01481467527005329    5    1    3    3
 1.060309399308901e-09    5    1    4    1
 0.06714014642887042    5    1    5    1
 0.05160059930751469    5    1    6    2
 0.0129502616189831    5    1    6    3
 0.005550556050275639    5    1    6    6
 -0.01295026161898308    5    1    7    2
 0.05160059930751461    5    1    7    3
 0.03700622732323181    5    1    7    6
 -0.005550556050275591    5    1    7    7
 -0.06550791936408679    5    1    8    4
 -3.61557673220908e-07    5    1    8    5
 0.02809716980121462    5    2    2    1
 -0.07869878744218904    5    2    3    1
 2.844246520163768e-09    5    2    4    2
 0.04174625983419288    5    2    4    3
 0.08579518485585057    5    2    5    2
 0.03612582483189799    5    2    6    1
 0.08124304893325369    5    2    6    4
 0.004913995562492476    5    2    6    5
 -0.009066544444771334    5    2    7    1
 0.007907186194578713    5    2    7    4
 -0.05048611827235133    5    2    7    5
 -0.03345711247807096    5    2    8    2
 -0.01194474784217222    5    2    8    3
 -0.02193066030252061    5    2    8    6
 -0.0873812025537762    5    2    8    7
 -1.059916043821829e-15    5    2    8    8
 -0.07869878744218906    5    3    2    1
 -0.02809716980121462    5    3    3    1
 -0.04174625983419294    5    3    4    2
 2.844246474627277e-09    5    3    4    3
 0.08579518485585053    5    3    5    3
 0.009066544444771379    5    3    6    1
 0.007907186194578714    5    3    6    4
 -0.0504861182723515    5    3    6    5
 0.03612582483189788    5    3    7    1
 -0.08124304893325364    5    3    7    4
 -0.004913995562492428    5    3    7    5
 -0.01194474784217221    5    3    8    2
 0.03345711247807092    5    3    8    3
 0.08738120255377627    5    3    8    6
 -0.0219306603025205    5    3    8    7
 5.547893743799298e-10    5    4    1    1
 -6.160882547057308e-09    5    4    2    2
 -6.160882573633814e-09    5    4    3    3
 -1.417272185270935e-07    5    4    4    4
 0.03282305807544277    5    4    5    4
 1.417272182469356e-07    5    4    5    5
 0.03380419116540079    5    4    6    2
 0.003289995651478645    5    4    6    3
 6.160882318629463e-09    5    4    6    6
 0.003289995651478629    5    4    7    2
 -0.03380419116540071    5    4    7    3
 6.16088226268463e-09    5    4    7    7
 -0.03427594225963201    5    4    8    1
 -5.547897124341672e-10    5    4    8    8
 0.3653021751781328    5    5    1    1
 0.3654229750126887    5    5    2    2
 0.3654229750126886    5    5    3    3
 0.362740289664509    5    5    4    4
 1.417272182252516e-07    5    5    5    4
 0.3770228014511399    5    5    5    5
 0.000458220465121678    5    5    6    2
 -0.004706267966098774    5    5    6    3
 0.3785527673837106    5    5    6    6
 -0.004706267966098623    5    5    7    2
 -0.0004582204651216795    5    5    7    3
 0.37855276738371    5    5    7    7
 -1.893048632191363e-07    5    5    8    1
 0.3838551734930635    5    5    8    8
 0.0003312132134908866    6    1    2    1
 -0.003403077604136447    6    1    3    1
 0.006589239322499559    6    1    4    2
 -0.0262550895718855    6    1    4    3
 0.03612582483189797    6    1    5    2
 0.009066544444771367    6    1    5    3
 0.04434769151074962    6    1    6    1
 0.03077947110901297    6    1    6    4
 0.002992437874546787    6    1    6    5
 -0.004616528011507573    6    1    7    4
 0.01995075804815768    6    1    7    5
 -0.04291546856879384    6    1    8    2
 -0.004176715404027238    6    1    8    3
 -2.279217381083616e-08    6    1    8    6
 -0.003740051662213397    6    1    8    7
 -2.256777630144742e-05    6    2    1    1
 0.01935089907982634    6    2    2    2
 -0.02874116608198844    6    2    3    2
 -0.01949030872096406    6    2    3    3
 0.01100163540275935    6    2    4    1
 -0.0005630420566724702    6    2    4    4
 0.05160059930751469    6    2    5    1
 0.03380419116540077    6    2    5    4
 0.0004582204651216015    6    2    5    5
 0.07719510682968253    6    2    6    2
 0.005868979658262117    6    2    6    3
 0.01254567839136893    6    2    6    6
 0.0001549635629506586    6    2    7    2
 0.007486944831230552    6    2    7    3
 0.0296501578801377    6    2    7    6
 -0.0126249452361941    6    2    7    7
 -0.03530715343491968    6    2    8    1
 -0.05307288932683604    6    2    8    4
 -0.01125283644469028    6    2    8    5
 -8.756011764310001e-05    6    2    8    8
 0.000231881385554006    6    3    1    1
 -0.02881862812743244    6    3    2    2
 -0.01949785521879688    6    3    3    2
 0.03025084409793684    6    3    3    3
 -0.04383641394238013    6    3    4    1
 0.005783270602244654    6    3    4    4
 0.0129502616189831    6    3    5    1
 0.003289995651478656    6    3    5    4
 -0.004706267966098783    6    3    5    5
 0.005868979658262102    6    3    6    2
 0.03587376709626527    6    3    6    3
 -0.03014473509238469    6    3    6    6
 -0.02747495358756968    6    3    7    2
 -0.0001549635629506975    6    3    7    3
 0.01249751911533774    6    3    7    6
 0.03095933820142932    6    3    7    7
 -0.003436241064900108    6    3    8    1
 -0.01332002969740219    6    3    8    4
 0.04483610503268644    6    3    8    5
 0.0008996415224332525    6    3    8    8
 0.02097138195192869    6    4    2    1
 -0.08356114729879699    6    4    3    1
 -0.004938105646069038    6    4    4    2
 0.0507338403607628    6    4    4    3
 0.08124304893325367    6    4    5    2
 0.007907186194578709    6    4    5    3
 0.030779471109013    6    4    6    1
 0.08860007257506293    6    4    6    4
 -2.844246572205472e-09    6    4    6    5
 -0.004616528011507585    6    4    7    1
 -0.05001075609244041    6    4    7    5
 -0.03462192174782112    6    4    8    2
 -0.008689269052230808    6    4    8    3
 -0.01432172841951025    6    4    8    6
 -0.09548903972635564    6    4    8    7
 -1.132774429812855e-15    6    4    8    8
 0.09343188229830596    6    5    2    1
 0.0234486881121603    6    5    3    1
 0.08934684555086719    6    5    4    2
 0.008695905581655648    6    5    4    3
 0.004913995562492467    6    5    5    2
 -0.05048611827235153    6    5    5    3
 0.002992437874546781    6    5    6    1
 -2.844246565700259e-09    6    5    6    4
 0.0976243035101093    6    5    6    5
 0.01995075804815771    6    5    7    1
 0.05001075609244038    6    5    7    4
 -0.005836254592658145    6    5    8    2
 0.0232540870515209    6    5    8    3
 -0.1065273131767922    6    5    8    6
 0.01597731282868654    6    5    8    7
 0.3701421009589445    6    6    1    1
 0.4067140969972048    6    6    2    2
 0.00861085654806564    6    6    3    2
 0.3374870033997788    6    6    3    3
 0.0456409183449949    6    6    4    1
 0.3776175737546005    6    6    4    4
 0.005550556050275608    6    6    5    1
 6.160882318195782e-09    6    6    5    4
 0.3785527673837105    6    6    5    5
 0.01254567839136895    6    6    6    2
 -0.03014473509238471    6    6    6    3
 0.4287812368734606    6    6    6    6
 0.03095933820142929    6    6    7    2
 0.01262494523619406    6    6    7    3
 -0.001711759303292551    6    6    7    6
 0.3495470124630813    6    6    7    7
 -9.347157516742532e-09    6    6    8    1
 -0.006617332496558138    6    6    8    4
 -0.05297894485883319    6    6    8    5
 0.396974622737446    6    6    8    8
 -0.003403077604136387    7    1    2    1
 -0.0003312132134909301    7    1    3    1
 0.02625508957188547    7    1    4    2
 0.006589239322499638    7    1    4    3
 -0.009066544444771348    7    1    5    2
 0.03612582483189791    7    1    5    3
 -0.004616528011507571    7    1    6    4
 0.0199507580481577    7    1    6    5
 0.0443476915107496    7    1    7    1
 -0.03077947110901304    7    1    7    4
 -0.002992437874546892    7    1    7    5
 -0.004176715404027195    7    1    8    2
 0.04291546856879391    7    1    8    3
 0.003740051662213491    7    1    8    6
 -2.279217390516175e-08    7    1    8    7
 0.0002318813855541218    7    2    1    1
 0.03025084409793688    7    2    2    2
 0.01949785521879685    7    2    3    2
 -0.02881862812743231    7    2    3    3
 0.04383641394238005    7    2    4    1
 0.005783270602244629    7    2    4    4
 -0.01295026161898308    7    2    5    1
 0.003289995651478631    7    2    5    4
 -0.004706267966098636    7    2    5    5
 0.0001549635629506746    7    2    6    2
 -0.02747495358756968    7    2    6    3
 0.03095933820142933    7    2    6    6
 0.03587376709626516    7    2    7    2
 -0.005868979658262059    7    2    7    3
 -0.01249751911533771    7    2    7    6
 -0.03014473509238459    7    2    7    7
 -0.003436241064900082    7    2    8    1
 0.01332002969740215    7    2    8    4
 -0.04483610503268638    7    2    8    5
 0.0008996415224332508    7    2    8    8
 2.256777630134724e-05    7    3    1    1
 0.01949030872096397    7    3    2    2
 -0.02874116608198838    7    3    3    2
 -0.01935089907982647    7    3    3    3
 0.0110016354027594    7    3    4    1
 0.000563042056672354    7    3    4    4
 0.05160059930751461    7    3    5    1
 -0.03380419116540073    7    3    5    4
 -0.0004582204651217107    7    3    5    5
 0.007486944831230554    7    3    6    2
 -0.0001549635629506997    7    3    6    3
 0.01262494523619406    7    3    6    6
 -0.005868979658262065    7    3    7    2
 0.0771951068296825    7    3    7    3
 0.02965015788013775    7    3    7    6
 -0.01254567839136908    7    3    7    7
 0.03530715343491971    7    3    8    1
 -0.05307288932683611    7    3    8    4
 -0.01125283644469034    7    3    8    5
 8.756011764306584e-05    7    3    8    8
 0.08356114729879692    7    4    2    1
 0.02097138195192877    7    4    3    1
 0.05073384036076272    7    4    4    2
 0.004938105646068934    7    4    4    3
 0.007907186194578704    7    4    5    2
 -0.08124304893325365    7    4    5    3
 -0.004616528011507573    7    4    6    1
 0.05001075609244038    7    4    6    5
 -0.03077947110901303    7    4    7    1
 0.08860007257506296    7    4    7    4
 -2.844246577843323e-09    7    4    7    5
 0.008689269052230816    7    4    8    2
 -0.03462192174782128    7    4    8    3
 -0.09548903972635571    7    4    8    6
 0.01432172841951022    7    4    8    7
 -0.02344868811216029    7    5    2    1
 0.09343188229830574    7    5    3    1
 0.008695905581655557    7    5    4    2
 -0.08934684555086708    7    5    4    3
 -0.05048611827235135    7    5    5    2
 -0.004913995562492444    7    5    5    3
 0.0199507580481577    7    5    6    1
 -0.05001075609244031    7    5    6    4
 -0.002992437874546883    7    5    7    1
 -2.844246546618301e-09    7    5    7    4
 0.09762430351010903    7    5    7    5
 -1.235123114895487e-15    7    5    7    7
 -0.02325408705152087    7    5    8    2
 -0.005836254592658196    7    5    8    3
 0.01597731282868663    7    5    8    6
 0.1065273131767921    7    5    8    7
 1.085936895961481e-15    7    5    8    8
 0.002896840452754127    7    6    2    2
 -0.02394688131017393    7    6    3    2
 -0.002896840452754317    7    6    3    3
 -0.006845587341528072    7    6    4    1
 0.03700622732323178    7    6    5    1
 0.02965015788013774    7    6    6    2
 0.01249751911533773    7    6    6    3
 -0.001711759303292579    7    6    6    6
 -0.01249751911533773    7    6    7    2
 0.02965015788013774    7    6    7    3
 0.02846093748421711    7    6    7    6
 0.001711759303292424    7    6    7    7
 -0.04412059592763665    7    6    8    4
 0.007945959503115718    7    6    8    5
 0.3701421009589442    7    7    1    1
 0.3374870033997786    7    7    2    2
 -1.158795281952507e-15    7    7    3    1
 -0.008610856548065629    7    7    3    2
 0.4067140969972047    7    7    3    3
 -0.04564091834499487    7    7    4    1
 0.3776175737546003    7    7    4    4
 -0.005550556050275584    7    7    5    1
 6.1608822973791e-09    7    7    5    4
 0.3785527673837102    7    7    5    5
 -0.01262494523619406    7    7    6    2
 0.03095933820142928    7    7    6    3
 0.3495470124630815    7    7    6    6
 -0.03014473509238466    7    7    7    2
 -0.0125456783913691    7    7    7    3
 -1.339206523454095e-15    7    7    7    5
 0.001711759303292468    7    7    7    6
 0.4287812368734603    7    7    7    7
 -9.347157600009259e-09    7    7    8    1
 0.006617332496558281    7    7    8    4
 0.05297894485883317    7    7    8    5
 -1.235123114895487e-15    7    7    8    7
 0.3969746227374459    7    7    8    8
 -6.224176404313886e-10    8    1    1    1
 9.035227358078339e-09    8    1    2    2
 9.035227329333428e-09    8    1    3    3
 1.890045652104544e-07    8    1    4    4
 -0.03427594225963201    8    1    5    4
 -1.893048632165342e-07    8    1    5    5
 -0.03530715343491969    8    1    6    2
 -0.003436241064900131    8    1    6    3
 -9.347157551437002e-09    8    1    6    6
 -0.003436241064900081    8    1    7    2
 0.03530715343491968    8    1    7    3
 -9.347157638173176e-09    8    1    7    7
 0.03581026538595171    8    1    8    1
 3.161464354195509e-10    8    1    8    8
 2.255702734950578e-08    8    2    2    1
 0.003740051662213497    8    2    3    1
 -0.008191748386120024    8    2    4    2
 0.0229452413037503    8    2    4    3
 -0.03345711247807096    8    2    5    2
 -0.0119447478421722    8    2    5    3
 -0.04291546856879388    8    2    6    1
 -0.03462192174782119    8    2    6    4
 -0.005836254592658181    8    2    6    5
 -0.004176715404027195    8    2    7    1
 0.008689269052230796    8    2    7    4
 -0.02325408705152086    8    2    7    5
 0.0458162067736802    8    2    8    2
 -0.0004434674337773963    8    2    8    6
 0.004556447719762886    8    2    8    7
 -0.003740051662213454    8    3    2    1
 2.255702733280907e-08    8    3    3    1
 0.02294524130375029    8    3    4    2
 0.008191748386120084    8    3    4    3
 -0.01194474784217222    8    3    5    2
 0.03345711247807092    8    3    5    3
 -0.004176715404027247    8    3    6    1
 -0.008689269052230782    8    3    6    4
 0.02325408705152087    8    3    6    5
 0.0429154685687939    8    3    7    1
 -0.03462192174782128    8    3    7    4
 -0.005836254592658191    8    3    7    5
 0.04581620677368031    8    3    8    3
 0.004556447719763141    8    3    8    6
 0.0004434674337773538    8    3    8    7
 -0.01416578639731498    8    4    2    2
 0.03967849745749352    8    4    3    2
 0.0141657863973151    8    4    3    3
 3.614644202730097e-07    8    4    4    1
 -0.0655079193640868    8    4    5    1
 -0.0530728893268361    8    4    6    2
 -0.01332002969740216    8    4    6    3
 -0.006617332496558156    8    4    6    6
 0.01332002969740214    8    4    7    2
 -0.05307288932683609    8    4    7    3
 -0.04412059592763663    8    4    7    6
 0.006617332496558267    8    4    7    7
 0.07290149554996112    8    4    8    4
 -1.060309494718692e-09    8    4    8    5
 -0.04811440232237527    8    5    2    2
 -0.01717761385255341    8    5    3    2
 0.04811440232237515    8    5    3    3
 -0.06550791936408679    8    5    4    1
 -3.615576732321837e-07    8    5    5    1
 -0.01125283644469029    8    5    6    2
 0.04483610503268644    8    5    6    3
 -0.0529789448588333    8    5    6    6
 -0.04483610503268638    8    5    7    2
 -0.01125283644469032    8    5    7    3
 0.00794595950311573    8    5    7    6
 0.05297894485883319    8    5    7    7
 -1.060309498188139e-09    8    5    8    4
 0.07290149554994953    8    5    8    5
 -0.1268158518685724    8    6    2    1
 -0.01234225257302922    8    6    3    1
 -0.09874903748286556    8    6    4    2
 -0.02478367383453889    8    6    4    3
 -0.0219306603025206    8    6    5    2
 0.08738120255377628    8    6    5    3
 -2.279217384834956e-08    8    6    6    1
 -0.01432172841951031    8    6    6    4
 -0.1065273131767921    8    6    6    5
 0.003740051662213484    8    6    7    1
 -0.09548903972635572    8    6    7    4
 0.01597731282868659    8    6    7    5
 -0.0004434674337773783    8    6    8    2
 0.004556447719763084    8    6    8    3
 0.1489989686285997    8    6    8    6
 1.356553758213863e-15    8    6    8    8
 -0.01234225257302916    8    7    2    1
 0.1268158518685723    8    7    3    1
 0.02478367383453887    8    7    4    2
 -0.09874903748286562    8    7    4    3
 -0.0873812025537762    8    7    5    2
 -0.02193066030252058    8    7    5    3
 -0.003740051662213423    8    7    6    1
 -0.09548903972635558    8    7    6    4
 0.01597731282868646    8    7    6    5
 -2.279217391210064e-08    8    7    7    1
 0.01432172841951021    8    7    7    4
 0.1065273131767921    8    7    7    5
 -1.297573160030652e-15    8    7    7    7
 0.004556447719762914    8    7    8    2
 0.0004434674337773815    8    7    8    3
 0.1489989686285994    8    7    8    7
 1.349614864309956e-15    8    7    8    8
 0.3738140611365854    8    8    1    1
 -1.035629915158154e-15    8    8    2    1
 0.376601844273048    8    8    2    2
 0.3766018442730481    8    8    3    3
 0.3838551734930693    8    8    4    4
 -1.026088936040281e-15    8    8    5    2
 -5.547896586577394e-10    8    8    5    4
 0.3838551734930634    8    8    5    5
 -8.756011764308406e-05    8    8    6    2
 0.0008996415224332803    8    8    6    3
 -1.06512021424976e-15    8    8    6    4
 0.396974622737446    8    8    6    6
 0.0008996415224332126    8    8    7    2
 8.756011764305544e-05    8    8    7    3
 0.3969746227374459    8    8    7    7
 3.161464076639753e-10    8    8    8    1
 1.412064909445121e-15    8    8    8    6
 1.332267629550188e-15    8    8    8    7
 0.4063703682318218    8    8    8    8
 -2.972671779069602    1    1  0  0
 -2.808859571778364    2    2  0  0
 -2.808859571778364    3    3  0  0
 -2.503220660341685    4    4  0  0
 -2.503220660341686    5    5  0  0
 -0.003303820434694274    6    2  0  0
 0.03394551890388785    6    3  0  0
 1.124100812432971e-15    6    4  0  0
 -2.040148394616772    6    6  0  0
 0.03394551890388731    7    2  0  0
 0.003303820434695154    7    3  0  0
 -2.04014839461677    7    7  0  0
 -1.024660707671377e-08    8    1  0  0
 -1.27675647831893e-15    8    6  0  0
 -1.706562442474609    8    8  0  0
 9.088095256960822  0  0  0  0
