 &FCI NORB=   6,NELEC= 6,MS2=0,
  ORBSYM=1,1,1,1,1,1,
  ISYM=1,
 &END
 0.4395207366823657    1    1    1    1
 0.4303548911691983    1    1    2    2
 0.4303548911691978    1    1    3    3
 0.4324114659127177    1    1    4    4
 0.4324114659127174    1    1    5    5
 0.4377150440236857    1    1    6    6
 0.128462969865301    2    1    2    1
 0.0006369835775211254    2    1    4    2
 0.09535900952674087    2    1    4    3
 0.09535900952674072    2    1    5    2
 -0.0006369835775210313    2    1    5    3
 -0.01246471853891712    2    1    6    4
 0.1301804832982807    2    1    6    5
 0.4303548911691982    2    2    1    1
 0.4644491898673059    2    2    2    2
 0.3902111216801268    2    2    3    3
 0.0003319070180502481    2    2    4    1
 0.4063575002250229    2    2    4    4
 0.04968781867095777    2    2    5    1
 -0.005219036898537789    2    2    5    4
 0.4603649670775061    2    2    5    5
 0.04657100796747909    2    2    6    2
 -0.004773291728977117    2    2    6    3
 0.4410428124246704    2    2    6    6
 0.1284629698653006    3    1    3    1
 0.09535900952674084    3    1    4    2
 -0.0006369835775211705    3    1    4    3
 -0.0006369835775210612    3    1    5    2
 -0.09535900952674074    3    1    5    3
 -0.1301804832982805    3    1    6    4
 -0.01246471853891716    3    1    6    5
 0.03711903409358954    3    2    3    2
 0.04968781867095785    3    2    4    1
 0.005219036898537855    3    2    4    4
 -0.0003319070180502197    3    2    5    1
 -0.02700373342624193    3    2    5    4
 -0.005219036898537931    3    2    5    5
 -0.004773291728977149    3    2    6    2
 -0.04657100796747923    3    2    6    3
 0.4303548911691978    3    3    1    1
 0.3902111216801267    3    3    2    2
 0.4644491898673054    3    3    3    3
 -0.0003319070180503175    3    3    4    1
 0.4603649670775061    3    3    4    4
 -0.04968781867095773    3    3    5    1
 0.005219036898538004    3    3    5    4
 0.4063575002250223    3    3    5    5
 -0.04657100796747914    3    3    6    2
 0.004773291728977343    3    3    6    3
 0.44104281242467    3    3    6    6
 0.0003319070180502256    4    1    2    2
 0.04968781867095785    4    1    3    2
 -0.0003319070180503453    4    1    3    3
 0.06708092098865875    4    1    4    1
 0.007221078770065184    4    1    4    4
 -0.0387499814153949    4    1    5    4
 -0.007221078770065277    4    1    5    5
 -0.006214105276901277    4    1    6    2
 -0.06489959846968907    4    1    6    3
 0.0006369835775211167    4    2    2    1
 0.09535900952674083    4    2    3    1
 0.0796745793674436    4    2    4    2
 0.003857434275821792    4    2    4    3
 -0.003857434275821739    4    2    5    2
 -0.06489813461222869    4    2    5    3
 -0.004573364773501272    4    2    6    1
 -0.101367299735228    4    2    6    4
 -0.009022981035126217    4    2    6    5
 0.09535900952674087    4    3    2    1
 -0.0006369835775211427    4    3    3    1
 0.003857434275821867    4    3    4    2
 0.1195919545148474    4    3    4    3
 0.02498075946482461    4    3    5    2
 0.003857434275821916    4    3    5    3
 -0.04776384116936937    4    3    6    1
 -0.009022981035126269    4    3    6    4
 0.1013672997352281    4    3    6    5
 0.4324114659127177    4    4    1    1
 0.4063575002250229    4    4    2    2
 0.005219036898537852    4    4    3    2
 0.4603649670775061    4    4    3    3
 0.007221078770065177    4    4    4    1
 0.4766745812845964    4    4    4    4
 -0.03874998141539483    4    4    5    1
 0.4113515217939301    4    4    5    5
 -0.04646496185264004    4    4    6    2
 -0.004135973540671543    4    4    6    3
 0.4556527780494194    4    4    6    6
 0.04968781867095777    5    1    2    2
 -0.0003319070180502221    5    1    3    2
 -0.04968781867095773    5    1    3    3
 -0.03874998141539483    5    1    4    4
 0.06708092098865874    5    1    5    1
 -0.007221078770065222    5    1    5    4
 0.03874998141539478    5    1    5    5
 0.06489959846968908    5    1    6    2
 -0.006214105276901322    5    1    6    3
 0.0953590095267407    5    2    2    1
 -0.0006369835775210833    5    2    3    1
 -0.003857434275821751    5    2    4    2
 0.02498075946482461    5    2    4    3
 0.1195919545148472    5    2    5    2
 -0.003857434275821837    5    2    5    3
 0.04776384116936955    5    2    6    1
 -0.009022981035126273    5    2    6    4
 0.1013672997352279    5    2    6    5
 -0.0006369835775210612    5    3    2    1
 -0.09535900952674073    5    3    3    1
 -0.06489813461222871    5    3    4    2
 0.003857434275821889    5    3    4    3
 -0.003857434275821853    5    3    5    2
 0.07967457936744346    5    3    5    3
 -0.004573364773501358    5    3    6    1
 0.101367299735228    5    3    6    4
 0.00902298103512637    5    3    6    5
 -0.005219036898537752    5    4    2    2
 -0.0270037334262419    5    4    3    2
 0.005219036898538053    5    4    3    3
 -0.03874998141539492    5    4    4    1
 -0.007221078770065229    5    4    5    1
 0.03266152974533294    5    4    5    4
 -0.00413597354067156    5    4    6    2
 0.04646496185263993    5    4    6    3
 0.4324114659127174    5    5    1    1
 0.4603649670775061    5    5    2    2
 -0.005219036898537914    5    5    3    2
 0.4063575002250222    5    5    3    3
 -0.007221078770065274    5    5    4    1
 0.4113515217939303    5    5    4    4
 0.03874998141539482    5    5    5    1
 0.4766745812845958    5    5    5    5
 0.0464649618526399    5    5    6    2
 0.004135973540671717    5    5    6    3
 0.4556527780494193    5    5    6    6
 -0.004573364773501304    6    1    4    2
 -0.04776384116936936    6    1    4    3
 0.04776384116936956    6    1    5    2
 -0.004573364773501368    6    1    5    3
 0.04831174183230161    6    1    6    1
 0.04657100796747909    6    2    2    2
 -0.004773291728977157    6    2    3    2
 -0.04657100796747918    6    2    3    3
 -0.006214105276901294    6    2    4    1
 -0.04646496185264005    6    2    4    4
 0.06489959846968908    6    2    5    1
 -0.004135973540671571    6    2    5    4
 0.04646496185263989    6    2    5    5
 0.07072261162668343    6    2    6    2
 -0.004773291728977114    6    3    2    2
 -0.04657100796747922    6    3    3    2
 0.004773291728977296    6    3    3    3
 -0.06489959846968907    6    3    4    1
 -0.004135973540671571    6    3    4    4
 -0.006214105276901322    6    3    5    1
 0.04646496185263992    6    3    5    4
 0.004135973540671793    6    3    5    5
 0.07072261162668331    6    3    6    3
 -0.01246471853891714    6    4    2    1
 -0.1301804832982805    6    4    3    1
 -0.1013672997352281    6    4    4    2
 -0.00902298103512629    6    4    4    3
 -0.009022981035126283    6    4    5    2
 0.1013672997352279    6    4    5    3
 0.1495739946672074    6    4    6    4
 0.1301804832982808    6    5    2    1
 -0.01246471853891717    6    5    3    1
 -0.00902298103512619    6    5    4    2
 0.1013672997352281    6    5    4    3
 0.101367299735228    6    5    5    2
 0.009022981035126389    6    5    5    3
 0.1495739946672082    6    5    6    5
 0.4377150440236859    6    6    1    1
 0.4410428124246704    6    6    2    2
 0.4410428124246699    6    6    3    3
 0.4556527780494194    6    6    4    4
 0.4556527780494193    6    6    5    5
 0.4711656173226774    6    6    6    6
 -2.649517967319045    1    1  0  0
 -2.360994257443045    2    2  0  0
 -2.360994257443043    3    3  0  0
 -1.165734175856414e-15    4    3  0  0
 -1.862035764123396    4    4  0  0
 -1.862035764123393    5    5  0  0
 -1.137978600240785e-15    6    5  0  0
 -1.41542349971391    6    6  0  0
 5.801952712942065  0  0  0  0
